!
! kindly provided by zodoczi
! https://github.com/Qucs/qucsator/issues/42
!
! 1 Hz data is simulated
#  Hz  S   RI  R   50

1.000000  6.331084e-002  -6.805530e-005  9.275759e-001  -3.380312e-003  -2.982681e-005  -3.950062e-005  5.184391e-005  2.374442e-005
    1.432217e-005  -2.398442e-006
    9.276892e-001  -3.471186e-003  6.392708e-002  1.168318e-005  -5.889841e-005  -2.358681e-005  8.423412e-005  6.079044e-005
    1.386097e-005  -1.867339e-005
    4.285543e-006  -4.825412e-005  -5.838146e-005  -1.929801e-005  -7.868031e-003  -9.890618e-005  -3.716201e-006  7.628651e-005
    -1.369036e-005  6.640823e-006
    7.129452e-006  -1.039979e-004  6.301901e-005  4.485356e-005  -4.922425e-005  -4.812945e-005  -6.222808e-003  2.760202e-006
    3.895020e-005  -3.086487e-005
    5.105137e-005  1.221638e-005  -3.343071e-005  -3.777020e-005  -3.865474e-005  -1.427600e-005  5.034909e-005  7.385394e-006
    -1.271557e-002  -4.242529e-005
1.000000e+007  6.331084e-002  -6.805530e-005  9.275759e-001  -3.380312e-003  -2.982681e-005  -3.950062e-005  5.184391e-005  2.374442e-005
    1.432217e-005  -2.398442e-006
    9.276892e-001  -3.471186e-003  6.392708e-002  1.168318e-005  -5.889841e-005  -2.358681e-005  8.423412e-005  6.079044e-005
    1.386097e-005  -1.867339e-005
    4.285543e-006  -4.825412e-005  -5.838146e-005  -1.929801e-005  -7.868031e-003  -9.890618e-005  -3.716201e-006  7.628651e-005
    -1.369036e-005  6.640823e-006
    7.129452e-006  -1.039979e-004  6.301901e-005  4.485356e-005  -4.922425e-005  -4.812945e-005  -6.222808e-003  2.760202e-006
    3.895020e-005  -3.086487e-005
    5.105137e-005  1.221638e-005  -3.343071e-005  -3.777020e-005  -3.865474e-005  -1.427600e-005  5.034909e-005  7.385394e-006
    -1.271557e-002  -4.242529e-005
3.500000e+007  6.290500e-002  -8.790791e-004  9.272083e-001  -1.254061e-002  -2.196301e-005  9.662928e-006  -4.439928e-005  -6.354297e-005
    -9.451174e-006  2.400362e-005
    9.276629e-001  -1.253382e-002  6.305048e-002  8.206068e-004  7.613884e-006  -3.933257e-006  3.529836e-005  6.881252e-005
    -3.261079e-005  -5.086319e-006
    -2.429540e-005  1.398829e-005  -5.534603e-005  3.813316e-005  -7.801067e-003  2.096837e-005  5.304077e-005  5.391576e-005
    -7.228738e-006  4.868988e-005
    1.252287e-008  1.918113e-005  4.990852e-005  2.221262e-005  2.650814e-005  4.260370e-005  -6.266370e-003  2.210134e-005
    -1.756649e-005  -2.048738e-005
    7.819149e-005  5.016129e-005  1.161141e-005  4.335308e-005  -4.347341e-005  -1.758433e-005  6.889146e-005  1.131741e-005
    -1.312246e-002  -8.083305e-005
6.000000e+007  6.376276e-002  -8.755697e-004  9.271246e-001  -2.063709e-002  6.573012e-005  -2.873071e-005  4.187498e-006  1.711581e-005
    -1.812931e-005  2.346437e-005
    9.273337e-001  -2.079683e-002  6.365219e-002  1.541527e-003  3.015153e-005  7.076115e-005  -1.094781e-005  6.311225e-005
    1.538029e-005  6.920521e-006
    -1.178849e-005  1.560336e-005  -7.296673e-005  2.684347e-005  -7.770005e-003  -3.117923e-005  -3.769565e-005  -5.541166e-005
    5.710801e-007  6.563927e-005
    3.206154e-005  3.231451e-005  6.786012e-006  8.768172e-005  3.110677e-005  4.512179e-005  -6.099822e-003  5.793813e-004
    1.447091e-005  2.614580e-005
    2.857077e-005  3.797286e-005  2.877253e-005  -3.857364e-005  4.696810e-005  8.194883e-005  -2.995607e-005  8.755094e-005
    -1.322665e-002  -1.751362e-004
8.500000e+007  6.315722e-002  -1.718463e-003  9.267149e-001  -2.918642e-002  -2.603710e-005  6.434163e-005  2.218757e-005  -3.790206e-006
    -9.303784e-006  4.639391e-005
    9.268490e-001  -2.936277e-002  6.327606e-002  1.624187e-003  -5.643505e-006  6.112628e-005  -2.167058e-006  9.071428e-005
    -4.370564e-005  1.841901e-005
    -4.829811e-005  5.595334e-005  -1.131027e-005  1.070902e-004  -7.580875e-003  1.404693e-005  -2.562685e-005  4.253103e-006
    -1.707291e-005  7.998500e-005
    4.844652e-005  -4.623932e-006  3.419836e-005  1.531595e-004  1.231176e-006  4.351091e-005  -6.155903e-003  1.149758e-003
    -1.439762e-005  -1.490120e-005
    -3.110841e-006  6.357508e-005  3.565988e-005  2.615596e-005  1.262732e-005  9.468923e-005  6.456335e-006  2.707723e-005
    -1.318877e-002  -3.928751e-004
1.100000e+008  6.352925e-002  -1.580384e-003  9.261813e-001  -3.749733e-002  2.455988e-005  5.766414e-005  -1.711682e-005  2.609663e-005
    2.940949e-006  5.705790e-005
    9.264075e-001  -3.775395e-002  6.369931e-002  3.221803e-003  6.490059e-007  1.211916e-004  2.451419e-005  1.586834e-004
    2.431604e-005  4.451683e-005
    -3.274382e-005  -8.476918e-006  -2.021787e-005  1.301193e-004  -7.267575e-003  2.107185e-004  -4.024892e-006  4.287945e-006
    1.030335e-005  8.969204e-005
    6.255890e-006  -7.555126e-006  -2.880879e-005  1.466044e-004  -5.105124e-005  -6.741808e-006  -6.478561e-003  1.473556e-003
    1.475003e-005  2.900669e-005
    -9.257570e-006  3.219189e-005  -6.709364e-005  3.744242e-005  7.867629e-006  1.109834e-004  -1.637290e-005  1.052722e-005
    -1.294324e-002  -3.941213e-004
1.350000e+008  6.373434e-002  -2.206564e-003  9.252014e-001  -4.571266e-002  -2.504632e-005  6.731014e-005  4.855795e-005  -1.651458e-005
    -3.871393e-006  5.252756e-005
    9.254497e-001  -4.616017e-002  6.357675e-002  3.495233e-003  3.874428e-005  1.786024e-004  -5.419706e-005  1.599179e-004
    -9.793644e-006  4.667316e-005
    -4.996579e-005  6.309626e-005  4.538603e-005  1.754158e-004  -7.381108e-003  7.064465e-004  7.389340e-006  1.362600e-005
    -1.418857e-005  9.266802e-005
    3.850221e-006  -1.559781e-005  -1.908442e-005  1.950592e-004  3.246391e-005  -2.779017e-005  -6.643647e-003  1.512512e-003
    5.277401e-005  4.502650e-005
    2.476460e-006  5.800917e-005  1.059103e-005  4.504473e-005  -6.674212e-005  7.569714e-005  4.218931e-005  9.343253e-005
    -1.274126e-002  -3.464401e-004
1.600000e+008  6.268518e-002  -3.053625e-003  9.251116e-001  -5.391917e-002  -6.140700e-005  7.020456e-005  -2.207635e-005  -8.554350e-006
    8.625729e-006  4.078478e-005
    9.256432e-001  -5.471192e-002  6.388639e-002  3.339702e-003  1.879103e-005  1.829132e-004  -1.957249e-005  1.448481e-004
    2.329165e-005  4.956142e-005
    1.403813e-005  8.586754e-005  -4.029662e-006  2.123231e-004  -7.315703e-003  7.781593e-004  3.301538e-005  8.193928e-006
    3.038879e-005  9.788752e-005
    2.521356e-005  4.867542e-005  3.412693e-006  2.271420e-004  2.980625e-005  2.568714e-005  -6.327918e-003  1.642442e-003
    -2.083270e-005  -1.737532e-005
    -4.325905e-005  4.911282e-005  -2.882797e-005  1.168115e-005  -6.568521e-006  1.665958e-004  1.712309e-007  4.171528e-005
    -1.261076e-002  -3.579293e-004
1.850000e+008  6.362658e-002  -2.436533e-003  9.244165e-001  -6.289573e-002  -4.124393e-005  7.340337e-005  -7.401590e-005  5.476335e-005
    -1.876833e-005  6.464566e-005
    9.245713e-001  -6.304844e-002  6.282925e-002  4.825908e-003  2.545116e-005  2.764383e-004  5.148511e-006  2.313563e-004
    -2.201459e-006  2.781767e-005
    -2.115946e-005  8.118330e-005  6.952111e-005  1.788734e-004  -7.463243e-003  8.222763e-004  3.975041e-006  4.514013e-005
    3.538179e-005  1.617124e-004
    -4.836179e-005  3.177069e-005  1.757841e-005  2.332932e-004  1.055124e-005  -6.429878e-005  -6.185560e-003  1.950812e-003
    1.299658e-005  3.258619e-005
    8.286372e-005  8.298222e-005  -3.188676e-005  2.251977e-005  -2.905043e-005  1.847131e-004  2.110526e-005  2.906669e-005
    -1.245991e-002  -2.392070e-004
2.100000e+008  6.285776e-002  -3.354426e-003  9.233208e-001  -7.112452e-002  -1.970179e-005  8.733278e-005  -2.578607e-005  6.824813e-005
    2.409361e-005  7.534958e-005
    9.236332e-001  -7.146788e-002  6.322063e-002  5.049160e-003  6.404194e-005  2.879447e-004  2.712883e-005  3.378355e-004
    -7.246081e-006  9.310046e-005
    5.537094e-006  3.911562e-005  6.110713e-005  1.968620e-004  -7.403708e-003  9.304833e-004  -1.966447e-005  1.089929e-005
    2.461453e-005  1.592549e-004
    -1.001597e-005  -3.817105e-006  -8.146767e-006  2.722972e-004  -5.660341e-005  -3.312067e-005  -6.368918e-003  2.742196e-003
    -4.953169e-005  5.239469e-005
    -3.385453e-005  1.263688e-004  -2.142700e-005  9.355624e-005  -1.796256e-005  1.458242e-004  1.899823e-005  5.065036e-006
    -1.243534e-002  -2.415589e-004
2.350000e+008  6.346398e-002  -3.585340e-003  9.226444e-001  -7.931322e-002  -6.096739e-005  8.090916e-005  -1.160100e-005  -9.264088e-006
    2.397235e-005  7.557592e-005
    9.228646e-001  -7.988451e-002  6.421636e-002  6.048273e-003  1.876934e-005  2.069130e-004  -3.744735e-005  3.016520e-004
    3.356796e-005  4.190361e-005
    -4.277861e-005  8.561108e-005  6.069223e-005  2.931868e-004  -7.380851e-003  1.216042e-003  -2.366082e-005  -4.301624e-005
    3.189964e-005  1.905044e-004
    -4.043608e-005  5.213561e-005  -4.693413e-005  2.455482e-004  -4.588106e-005  3.776125e-005  -6.835989e-003  3.079697e-003
    2.404990e-005  4.341149e-005
    -3.311788e-005  3.187913e-005  -1.811460e-005  -2.222557e-005  -1.001863e-005  1.453638e-004  -5.593060e-005  2.709870e-005
    -1.231514e-002  -2.520478e-005
2.600000e+008  6.354429e-002  -3.117766e-003  9.216442e-001  -8.765406e-002  -4.480325e-005  1.049800e-004  -5.298778e-005  5.688680e-005
    -2.975608e-005  9.193365e-005
    9.217349e-001  -8.806690e-002  6.342271e-002  7.223688e-003  4.808661e-005  2.907549e-004  6.161183e-005  3.686414e-004
    2.851088e-005  6.331406e-005
    5.166828e-005  6.873640e-005  1.051948e-004  3.282186e-004  -7.457979e-003  1.338460e-003  3.070542e-005  5.133293e-006
    -2.139893e-005  1.875390e-004
    4.227962e-006  -4.081581e-006  7.878624e-005  2.678071e-004  6.548590e-006  1.057542e-005  -7.175868e-003  2.967062e-003
    9.373728e-006  2.900813e-005
    5.158117e-005  8.606675e-005  -5.786062e-005  8.253872e-005  -4.653449e-005  1.663954e-004  4.350278e-005  1.834007e-005
    -1.235248e-002  2.166492e-004
2.850000e+008  6.323602e-002  -3.600593e-003  9.206801e-001  -9.623061e-002  -7.241614e-005  6.650065e-005  -4.343089e-005  4.895512e-005
    4.221788e-006  1.258546e-004
    9.208222e-001  -9.634636e-002  6.293268e-002  7.968747e-003  4.385352e-005  3.802732e-004  -1.889005e-005  3.214560e-004
    -3.237857e-005  4.917027e-005
    -3.911459e-005  9.995791e-005  4.259981e-005  3.289951e-004  -7.574200e-003  1.348027e-003  1.659953e-006  2.468212e-005
    1.303419e-005  2.136729e-004
    -3.217423e-005  1.267670e-005  7.722985e-005  3.338064e-004  -5.405469e-005  -1.342293e-005  -7.085727e-003  2.901647e-003
    1.232795e-005  3.871170e-005
    -1.545107e-005  1.283494e-004  1.110346e-005  -8.340056e-006  8.361270e-006  2.301383e-004  -5.595208e-005  6.515596e-005
    -1.261487e-002  3.210679e-004
3.100000e+008  6.284387e-002  -4.513986e-003  9.196035e-001  -1.045151e-001  -5.636862e-005  6.970424e-005  -4.149555e-006  7.046277e-005
    1.259501e-005  9.294598e-005
    9.198572e-001  -1.048806e-001  6.280243e-002  7.426464e-003  2.901233e-005  3.515785e-004  4.088161e-006  3.322477e-004
    -2.329647e-005  5.430827e-005
    -7.019020e-005  1.300230e-004  9.453896e-005  3.860252e-004  -7.659608e-003  1.377828e-003  2.493810e-005  1.583759e-005
    -2.961795e-005  2.739472e-004
    -3.845525e-005  4.870302e-005  2.485769e-005  3.775754e-004  -1.924382e-005  -3.871678e-005  -6.888120e-003  3.473144e-003
    1.751569e-005  9.218943e-005
    -3.597565e-006  1.031003e-004  -7.228408e-005  1.229459e-004  -5.630635e-005  2.244807e-004  3.602560e-005  7.157723e-005
    -1.282255e-002  2.868720e-004
3.350000e+008  6.266784e-002  -4.972923e-003  9.182555e-001  -1.129135e-001  -2.851420e-005  9.518234e-005  -6.997921e-005  8.577478e-005
    -8.942506e-006  1.099675e-004
    9.178990e-001  -1.128860e-001  6.298215e-002  8.065301e-003  5.959929e-005  4.095551e-004  2.590283e-005  3.908059e-004
    -1.917433e-005  6.748255e-005
    -5.704441e-005  1.061033e-004  1.159902e-004  3.537057e-004  -7.542538e-003  1.694642e-003  5.923233e-005  -5.902265e-006
    2.852233e-005  2.461602e-004
    -4.348963e-005  2.445352e-005  -6.897892e-005  4.108023e-004  3.969349e-005  4.870732e-005  -7.143884e-003  4.416198e-003
    4.737347e-005  6.432425e-005
    -1.755691e-005  1.404145e-004  -3.255615e-005  8.185337e-005  1.057514e-005  2.867785e-004  -6.085633e-006  1.446557e-004
    -1.291370e-002  2.307665e-004
3.600000e+008  6.260983e-002  -5.034559e-003  9.164182e-001  -1.212048e-001  -9.010954e-005  1.418951e-004  -5.052973e-005  7.592761e-005
    2.951852e-005  1.951026e-004
    9.173540e-001  -1.194429e-001  6.366993e-002  8.905256e-003  1.187321e-004  4.104225e-004  2.302840e-005  4.120406e-004
    7.445251e-006  4.465692e-005
    -6.234595e-005  1.980460e-004  1.476168e-004  3.685907e-004  -7.793055e-003  1.855207e-003  -1.988633e-006  6.697464e-006
    -1.481318e-005  2.669386e-004
    -5.373365e-005  7.037528e-005  -3.563846e-005  4.431192e-004  -4.103639e-005  -2.300093e-005  -8.069082e-003  4.963534e-003
    -2.043639e-005  8.395150e-005
    -1.574171e-006  9.037447e-005  -1.679253e-005  5.926614e-005  -1.668952e-005  2.249656e-004  3.839251e-006  6.361257e-005
    -1.303061e-002  2.017324e-004
3.850000e+008  6.288298e-002  -5.301814e-003  9.148943e-001  -1.278052e-001  -1.500254e-005  1.747836e-004  -7.606991e-005  6.633609e-005
    1.304301e-005  1.278429e-004
    9.176120e-001  -1.286799e-001  6.303372e-002  9.575530e-003  1.603115e-004  4.553643e-004  1.917848e-005  4.432081e-004
    -1.143596e-005  1.144741e-004
    -2.081233e-005  7.777252e-005  1.079523e-004  4.035260e-004  -8.244852e-003  2.184189e-003  -3.770817e-005  -7.874490e-006
    4.434926e-005  2.599217e-004
    -6.385678e-005  1.425438e-004  -4.772854e-005  4.396850e-004  -5.941285e-005  1.687958e-005  -8.987909e-003  4.889565e-003
    -3.236594e-005  4.449971e-005
    1.136967e-006  1.503630e-004  -3.237398e-005  5.405247e-005  1.783794e-005  3.195221e-004  -9.753466e-006  8.796044e-005
    -1.318545e-002  1.945412e-004
4.100000e+008  6.317665e-002  -6.381740e-003  9.160028e-001  -1.347865e-001  -1.249391e-004  2.503549e-004  -3.422622e-005  1.735777e-005
    -4.902512e-006  1.631737e-004
    9.154088e-001  -1.387359e-001  6.358315e-002  9.695715e-003  1.346180e-004  4.956711e-004  1.231707e-004  4.892779e-004
    -7.199800e-006  2.523825e-005
    1.945162e-006  1.474268e-004  9.544280e-005  5.165342e-004  -8.573495e-003  2.229942e-003  -3.492960e-005  1.122235e-005
    -1.835099e-005  3.168461e-004
    3.221804e-005  2.246141e-005  5.198792e-005  5.157331e-004  -9.922693e-005  3.741463e-005  -9.323958e-003  4.669770e-003
    5.269702e-006  8.540429e-005
    3.468298e-005  2.117900e-004  -2.908299e-005  2.540286e-005  -6.207688e-006  2.974788e-004  6.247026e-005  3.969924e-005
    -1.333962e-002  2.436522e-004
4.350000e+008  6.332216e-002  -7.221083e-003  9.153774e-001  -1.460964e-001  -5.466052e-005  2.581419e-004  -7.189999e-005  1.035674e-004
    -3.667498e-005  1.784884e-004
    9.133959e-001  -1.458071e-001  6.317579e-002  9.908848e-003  2.010568e-004  4.149187e-004  9.764587e-005  5.275681e-004
    -3.109500e-005  1.072037e-004
    -1.513459e-004  2.204061e-004  1.283961e-004  4.416709e-004  -9.178516e-003  2.361928e-003  8.635832e-006  4.849401e-005
    -6.314888e-006  3.140897e-004
    -8.023242e-005  5.401948e-005  1.031797e-004  5.608097e-004  3.686389e-006  6.749081e-005  -9.649056e-003  5.007366e-003
    1.169878e-005  1.100987e-004
    -5.375643e-005  1.382294e-004  4.317359e-005  1.653417e-004  3.768221e-005  3.569030e-004  -8.824472e-006  6.632921e-005
    -1.362482e-002  2.835206e-004
4.600000e+008  6.333580e-002  -7.688224e-003  9.123652e-001  -1.544098e-001  -8.065944e-005  2.153856e-004  -1.578785e-005  3.327144e-005
    -2.281545e-006  2.300782e-004
    9.123660e-001  -1.534042e-001  6.291336e-002  1.009007e-002  9.927032e-005  4.304269e-004  -3.403231e-005  5.418281e-004
    -5.733824e-005  1.255111e-004
    -7.186140e-005  2.646867e-004  7.177761e-005  5.201937e-004  -9.590181e-003  2.423928e-003  -3.128975e-005  6.708997e-006
    6.263549e-005  3.507921e-004
    -2.969498e-005  1.500403e-004  4.597029e-005  5.149455e-004  -1.281427e-006  2.683700e-005  -1.024456e-002  5.694863e-003
    1.862342e-005  8.650131e-005
    4.749429e-005  1.290640e-004  -8.526985e-006  3.452466e-005  -2.203565e-005  2.816359e-004  -2.188944e-005  8.705417e-005
    -1.394528e-002  3.016381e-004
4.850000e+008  6.274979e-002  -8.191626e-003  9.106930e-001  -1.624502e-001  -6.576054e-005  2.150466e-004  -7.300291e-005  1.559102e-004
    -9.510521e-006  1.685999e-004
    9.112417e-001  -1.618696e-001  6.313185e-002  1.025144e-002  1.180947e-004  5.435261e-004  6.001881e-005  5.070691e-004
    -9.444271e-006  7.470695e-005
    -5.784090e-005  2.281596e-004  1.243369e-004  4.592952e-004  -1.005940e-002  2.448412e-003  -5.776875e-006  -1.012603e-005
    1.040866e-005  3.890451e-004
    -5.887320e-005  1.475007e-004  1.858660e-005  5.529267e-004  -4.193864e-005  -4.277321e-005  -1.147673e-002  5.920251e-003
    5.820636e-006  7.022894e-005
    7.017633e-006  1.791363e-004  -3.163330e-005  1.479490e-004  3.929644e-005  3.619577e-004  -1.779351e-005  1.060130e-004
    -1.435164e-002  1.597856e-004
5.100000e+008  6.215111e-002  -8.639037e-003  9.088706e-001  -1.705841e-001  -4.670880e-005  2.538398e-004  -3.964155e-005  1.067336e-004
    -1.962421e-005  1.946902e-004
    9.093454e-001  -1.702485e-001  6.263695e-002  1.046961e-002  1.773143e-004  5.250257e-004  4.072287e-007  6.860652e-004
    2.031164e-005  1.039017e-004
    -1.163456e-004  1.788225e-004  1.117277e-004  6.099106e-004  -1.053090e-002  2.468549e-003  2.976772e-006  5.056098e-006
    1.977541e-006  3.931407e-004
    -8.611214e-005  7.926880e-005  5.693537e-005  5.979024e-004  -1.387464e-005  4.999939e-005  -1.264138e-002  5.553622e-003
    3.739656e-005  1.088691e-004
    7.757291e-005  2.135281e-004  -7.380359e-005  1.256590e-004  3.093768e-005  3.825405e-004  3.162771e-005  1.327507e-004
    -1.463912e-002  -3.418854e-005
5.350000e+008  6.188663e-002  -9.387377e-003  9.072222e-001  -1.784851e-001  -8.273966e-005  2.431705e-004  -1.094624e-004  1.346336e-004
    -1.675493e-005  2.177800e-004
    9.078118e-001  -1.783346e-001  6.258298e-002  1.062413e-002  2.175350e-004  6.766391e-004  8.042823e-005  5.586539e-004
    -5.576420e-005  8.565928e-005
    1.089129e-005  2.092122e-004  1.788339e-004  5.933721e-004  -1.105074e-002  2.516198e-003  8.411930e-006  -9.977027e-006
    3.617817e-005  4.667801e-004
    -8.251578e-005  7.982033e-005  -3.915146e-005  6.408645e-004  -1.824523e-005  2.202745e-005  -1.312585e-002  5.113224e-003
    -3.097619e-007  1.049745e-004
    2.632031e-005  2.308478e-004  -3.528613e-006  2.119273e-004  -1.145013e-005  3.731793e-004  4.897174e-005  8.071950e-005
    -1.470369e-002  -1.507757e-004
5.600000e+008  6.188201e-002  -1.067528e-002  9.053148e-001  -1.865367e-001  -3.435155e-005  2.537991e-004  7.558466e-006  7.855454e-005
    6.417161e-006  2.279653e-004
    9.060574e-001  -1.868015e-001  6.154115e-002  9.810270e-003  2.430044e-004  5.751606e-004  7.947190e-005  6.552441e-004
    -8.834514e-005  1.144633e-004
    -1.453781e-004  2.066717e-004  1.989641e-004  4.936825e-004  -1.163643e-002  2.383120e-003  -3.924176e-005  9.559279e-006
    5.665361e-006  4.330275e-004
    -1.335570e-004  1.579507e-004  8.888182e-005  6.546633e-004  -7.272037e-005  3.775117e-005  -1.319894e-002  5.140672e-003
    -7.750268e-006  1.161410e-004
    -6.254812e-005  1.832597e-004  1.669250e-006  1.560388e-004  4.540390e-005  4.347550e-004  -3.792962e-005  1.146350e-004
    -1.482493e-002  -1.244004e-004
5.850000e+008  6.169574e-002  -1.197881e-002  9.037133e-001  -1.944280e-001  -8.461124e-005  3.194239e-004  -6.904179e-005  1.430034e-004
    7.953502e-006  2.703816e-004
    9.042100e-001  -1.949378e-001  6.121191e-002  9.668637e-003  1.791755e-004  6.496076e-004  3.938506e-005  7.684169e-004
    -6.560661e-005  9.519470e-005
    -2.141145e-005  3.563125e-004  1.682783e-004  6.496031e-004  -1.257625e-002  2.468750e-003  4.450151e-005  4.563768e-005
    -1.252773e-005  4.067561e-004
    -4.271644e-005  2.057908e-004  1.672482e-004  6.472671e-004  1.317019e-005  -1.960287e-005  -1.404686e-002  5.840462e-003
    8.211664e-006  5.295382e-005
    6.529958e-005  2.262240e-004  -6.979107e-005  7.462766e-005  -4.398400e-005  5.076648e-004  1.475932e-006  1.765650e-004
    -1.504459e-002  2.391148e-004
6.100000e+008  6.149729e-002  -1.301512e-002  9.021751e-001  -2.025003e-001  -1.184092e-004  2.586875e-004  -1.405262e-004  9.180208e-005
    1.163957e-006  2.269829e-004
    9.023416e-001  -2.028586e-001  6.110441e-002  9.732130e-003  1.841072e-004  6.351520e-004  7.204263e-005  7.232096e-004
    2.911562e-006  9.527758e-005
    -1.252753e-004  2.465587e-004  1.870389e-004  5.532617e-004  -1.313820e-002  2.264765e-003  -2.942333e-005  3.431989e-005
    -1.717243e-005  4.528983e-004
    -9.272192e-006  2.439992e-004  4.152115e-006  8.059648e-004  -1.527169e-005  7.602920e-005  -1.558429e-002  5.963076e-003
    3.062469e-005  1.170279e-004
    4.352714e-005  2.230342e-004  -8.408115e-005  7.165633e-005  2.012889e-005  5.010695e-004  -3.856177e-005  1.432304e-004
    -1.551868e-002  4.162123e-004
6.350000e+008  6.127971e-002  -1.357596e-002  9.002958e-001  -2.106880e-001  -9.976107e-005  2.929416e-004  -8.838009e-005  1.218681e-004
    5.526944e-006  2.434170e-004
    9.004039e-001  -2.108948e-001  6.100050e-002  9.745900e-003  1.827541e-004  6.708223e-004  1.299408e-004  6.918867e-004
    -8.487550e-005  1.563454e-004
    -1.100821e-004  2.654170e-004  1.828191e-004  6.739262e-004  -1.370901e-002  1.699526e-003  -5.153309e-005  2.354781e-005
    1.292490e-005  4.843585e-004
    -4.727877e-005  1.743770e-004  1.177703e-007  7.006701e-004  1.024278e-006  5.086308e-005  -1.689600e-002  5.264290e-003
    4.064576e-005  6.301884e-005
    1.511355e-005  2.078884e-004  -9.997096e-005  6.238911e-005  -4.104918e-005  4.868495e-004  3.734750e-005  9.944009e-005
    -1.605302e-002  4.209556e-004
6.600000e+008  6.156924e-002  -1.456985e-002  8.981926e-001  -2.187213e-001  -1.779007e-004  3.399201e-004  -7.350696e-005  7.090240e-005
    4.763972e-005  2.525559e-004
    8.988111e-001  -2.189715e-001  6.065729e-002  9.504647e-003  2.319718e-004  6.701224e-004  2.893104e-005  7.741147e-004
    -1.004343e-005  1.250973e-004
    -6.586380e-005  2.821050e-004  2.038297e-004  7.628893e-004  -1.410807e-002  1.657893e-003  -1.542179e-005  -5.142307e-005
    1.522485e-005  5.493096e-004
    -6.555087e-005  1.263465e-004  3.817209e-005  7.557935e-004  -5.853286e-005  -1.184695e-005  -1.728060e-002  4.361978e-003
    4.234041e-006  9.482160e-005
    -5.607548e-006  3.388029e-004  -6.502114e-005  1.531105e-004  6.223253e-005  4.292840e-004  3.385897e-005  2.137186e-004
    -1.682162e-002  3.896594e-004
6.850000e+008  6.154672e-002  -1.589531e-002  8.963706e-001  -2.269481e-001  -1.755115e-005  3.264055e-004  -8.410989e-005  1.653297e-004
    1.915812e-005  2.604918e-004
    8.965810e-001  -2.273148e-001  5.977659e-002  8.881964e-003  3.342442e-004  8.008001e-004  3.289521e-005  7.855210e-004
    -5.530444e-005  1.262114e-004
    -7.991556e-005  3.455006e-004  2.231333e-004  6.888148e-004  -1.449257e-002  1.589202e-003  1.523470e-005  2.266961e-005
    3.576239e-005  5.197263e-004
    -1.106383e-004  1.849004e-004  3.133944e-006  8.719066e-004  -2.585138e-005  3.919602e-006  -1.736822e-002  4.220792e-003
    2.396893e-005  1.379708e-004
    -3.791438e-006  1.908621e-004  -3.643974e-005  1.817751e-004  1.591339e-005  5.072012e-004  -1.745730e-005  1.291632e-004
    -1.727936e-002  3.074720e-004
7.100000e+008  6.042878e-002  -1.701970e-002  8.942011e-001  -2.350318e-001  -6.429645e-005  2.895283e-004  -1.351013e-004  1.844681e-004
    4.480617e-005  3.049376e-004
    8.944567e-001  -2.353678e-001  5.930108e-002  8.129952e-003  1.800467e-004  7.273604e-004  2.114934e-006  8.323067e-004
    -3.438352e-005  1.337593e-004
    -1.064404e-004  3.358909e-004  3.128712e-004  7.051115e-004  -1.515775e-002  1.739192e-003  -2.544448e-005  -2.651519e-005
    1.678265e-005  5.064075e-004
    -1.344930e-004  1.900510e-004  8.838622e-005  8.055053e-004  -5.818492e-006  6.850641e-005  -1.772325e-002  4.928279e-003
    4.248338e-005  1.298500e-004
    -2.362552e-006  2.669849e-004  -1.526989e-006  1.919844e-004  4.678890e-005  5.280907e-004  5.011339e-006  2.010236e-004
    -1.793243e-002  1.495352e-004
7.350000e+008  5.917512e-002  -1.820770e-002  8.918679e-001  -2.431940e-001  -1.541479e-004  2.541278e-004  -7.847374e-005  1.492487e-004
    4.026329e-005  2.861192e-004
    8.922854e-001  -2.435336e-001  5.881188e-002  7.385556e-003  1.816759e-004  6.796420e-004  7.447953e-005  7.720062e-004
    -1.230604e-005  1.611866e-004
    -9.852400e-005  3.037016e-004  3.024742e-004  7.052724e-004  -1.588479e-002  1.447212e-003  6.931549e-005  -2.467526e-005
    7.658232e-005  5.573842e-004
    -9.320501e-005  2.011776e-004  8.052664e-005  7.343190e-004  -2.142818e-005  1.133351e-004  -1.920538e-002  5.608219e-003
    4.280968e-005  1.270165e-004
    6.329285e-005  3.340726e-004  2.808171e-005  6.517649e-005  9.668519e-005  5.652594e-004  1.293686e-005  1.549796e-004
    -1.852481e-002  -9.983709e-005
7.600000e+008  5.868322e-002  -1.933471e-002  8.895550e-001  -2.512129e-001  -3.805699e-005  4.347965e-004  -6.874999e-006  1.503109e-004
    -2.951473e-005  2.594864e-004
    8.900310e-001  -2.516214e-001  5.859479e-002  6.935783e-003  2.368489e-004  7.764174e-004  1.070658e-004  9.101682e-004
    -3.980904e-005  2.237916e-004
    -3.080061e-005  3.206948e-004  2.949228e-004  7.663739e-004  -1.658820e-002  1.230285e-003  5.338606e-006  9.029115e-005
    4.375184e-005  6.192046e-004
    -1.560087e-004  2.505803e-004  6.318311e-005  7.283124e-004  -3.722400e-005  2.923673e-005  -2.123611e-002  5.299068e-003
    2.517955e-006  1.259374e-004
    -5.311303e-005  2.142061e-004  -9.327039e-006  2.395565e-004  2.757986e-005  5.702566e-004  1.642175e-004  1.070686e-004
    -1.888685e-002  -2.353977e-004
7.850000e+008  5.837367e-002  -2.099860e-002  8.874891e-001  -2.590445e-001  -1.184703e-004  3.493829e-004  -1.505074e-004  1.832390e-004
    1.280021e-005  3.171680e-004
    8.877484e-001  -2.593855e-001  5.830661e-002  6.847522e-003  3.067010e-004  7.136353e-004  5.969616e-005  8.966041e-004
    -6.795350e-005  2.284429e-004
    -3.666459e-005  3.436669e-004  1.618690e-004  7.399267e-004  -1.725295e-002  1.198453e-003  -4.162453e-005  9.765614e-005
    4.227904e-005  5.908990e-004
    -4.354373e-006  2.198495e-004  8.942743e-005  9.757495e-004  -1.044518e-005  -3.136846e-005  -2.231435e-002  3.950075e-003
    2.566478e-005  1.011944e-004
    1.450483e-005  2.594174e-004  -8.441814e-005  1.799381e-004  2.470434e-005  5.837441e-004  -5.377624e-007  1.334409e-004
    -1.924359e-002  -4.311857e-004
8.100000e+008  5.805613e-002  -2.246353e-002  8.852062e-001  -2.673370e-001  -9.181459e-005  4.473851e-004  -9.676661e-005  2.152293e-004
    2.293624e-005  3.252782e-004
    8.852582e-001  -2.674912e-001  5.738090e-002  6.034458e-003  3.047199e-004  7.170532e-004  9.469834e-005  1.022792e-003
    -5.278001e-005  2.116376e-004
    -1.124339e-004  4.642687e-004  3.448660e-004  8.059803e-004  -1.757470e-002  9.770130e-004  4.020870e-005  5.918327e-005
    6.051173e-007  6.501577e-004
    -1.708043e-004  2.362975e-004  1.519339e-004  1.025582e-003  -9.195960e-005  2.912549e-005  -2.287347e-002  3.206882e-003
    4.680800e-005  1.353609e-004
    2.317175e-005  3.540399e-004  -3.507742e-006  1.991710e-004  3.406218e-006  6.009881e-004  -4.519675e-006  1.465533e-004
    -1.969813e-002  -3.171791e-004
8.350000e+008  5.733920e-002  -2.408952e-002  8.825577e-001  -2.753367e-001  -8.165139e-005  3.925385e-004  -1.313785e-004  2.334012e-004
    2.946795e-005  3.144055e-004
    8.830056e-001  -2.753885e-001  5.711326e-002  4.564093e-003  3.050580e-004  7.905849e-004  8.877765e-005  9.627133e-004
    -2.971188e-005  1.986983e-004
    -7.549764e-005  4.631924e-004  3.297412e-004  7.221418e-004  -1.838262e-002  1.122625e-003  -8.535340e-005  2.236599e-005
    6.838351e-005  6.334494e-004
    -1.574391e-004  2.932244e-004  8.225190e-005  9.184012e-004  -6.007334e-005  6.347739e-005  -2.301544e-002  3.346503e-003
    1.301576e-005  7.021794e-005
    -1.162328e-005  3.171486e-004  -1.435706e-005  1.929375e-004  7.516657e-005  5.454659e-004  3.091951e-005  1.583169e-004
    -2.038628e-002  -4.219631e-004
8.600000e+008  5.600218e-002  -2.553598e-002  8.798250e-001  -2.836390e-001  -1.040532e-004  4.420285e-004  -1.023772e-004  2.921487e-004
    4.153111e-005  3.575109e-004
    8.802132e-001  -2.837421e-001  5.644326e-002  3.591957e-003  3.363773e-004  7.733721e-004  1.050276e-004  9.338198e-004
    -2.684362e-005  2.000547e-004
    -1.155949e-004  3.935888e-004  3.956239e-004  8.116981e-004  -1.910113e-002  5.927716e-004  -5.335200e-005  1.037598e-004
    7.225151e-005  6.819039e-004
    -1.310257e-004  2.430351e-004  1.315029e-004  1.017959e-003  -1.935332e-005  6.025838e-005  -2.394829e-002  3.690157e-003
    6.064655e-005  1.284517e-004
    -7.080088e-005  3.147110e-004  -7.785443e-005  2.191088e-004  -6.233872e-006  6.973103e-004  6.752203e-005  1.116150e-004
    -2.106612e-002  -5.804992e-004
8.850000e+008  5.575579e-002  -2.672959e-002  8.770917e-001  -2.915202e-001  -1.096513e-004  4.232820e-004  -9.951118e-005  2.126412e-004
    7.277246e-006  3.080737e-004
    8.776367e-001  -2.914683e-001  5.609145e-002  3.384106e-003  3.634194e-004  7.628613e-004  1.317471e-004  1.047429e-003
    -6.802013e-006  1.887821e-004
    -1.051526e-004  4.327996e-004  4.201008e-004  7.909861e-004  -1.986985e-002  6.608917e-004  1.867433e-005  -9.210249e-006
    8.943679e-005  6.801857e-004
    -1.204620e-004  3.249421e-004  1.067612e-004  1.062010e-003  -8.735475e-005  6.228901e-005  -2.584159e-002  3.512017e-003
    3.453690e-006  2.211751e-004
    4.904174e-005  4.266173e-004  -3.829061e-005  1.921865e-004  1.297591e-004  7.056301e-004  2.721649e-005  1.227646e-004